LAMMPS (2 Aug 2023 - Update 3)
  using 2 OpenMP thread(s) per MPI task
Lattice spacing in x,y,z = 1.6795962 1.6795962 1.6795962
Created orthogonal box = (0 0 0) to (33.591924 33.591924 33.591924)
  2 by 2 by 2 MPI processor grid
Created 32000 atoms
  using lattice units in orthogonal box = (0 0 0) to (33.591924 33.591924 33.591924)
  create_atoms CPU = 0.001 seconds
Generated 0 of 0 mixed pair_coeff terms from geometric mixing rule
Neighbor list info ...
  update: every = 100 steps, delay = 0 steps, check = yes
  max neighbors/atom: 2000, page size: 100000
  master list distance cutoff = 2.55
  ghost atom cutoff = 2.55
  binsize = 1.275, bins = 27 27 27
  1 neighbor lists, perpetual/occasional/extra = 1 0 0
  (1) pair lj/cut, perpetual
      attributes: half, newton on
      pair build: half/bin/atomonly/newton
      stencil: half/bin/3d
      bin: standard
Setting up Verlet run ...
  Unit style    : lj
  Current step  : 0
  Time step     : 0.005
Per MPI rank memory allocation (min/avg/max) = 4.611 | 4.611 | 4.611 Mbytes
   Step          Temp          E_pair         E_mol          TotEng         Press     
         0   1.44          -6.7733681      0             -4.6134356     -5.0197073    
     10000   0.32812294    -6.3864011      0             -5.894232      -1.4747726    
Loop time of 17.8633 on 16 procs for 10000 steps with 32000 atoms

Performance: 241837.220 tau/day, 559.808 timesteps/s, 17.914 Matom-step/s
95.0% CPU use with 8 MPI tasks x 2 OpenMP threads

MPI task timing breakdown:
Section |  min time  |  avg time  |  max time  |%varavg| %total
---------------------------------------------------------------
Pair    | 13.099     | 13.401     | 14.16      |   9.5 | 75.02
Neigh   | 0.43483    | 0.44331    | 0.46483    |   1.5 |  2.48
Comm    | 2.6303     | 3.428      | 3.7471     |  19.7 | 19.19
Output  | 7.0143e-05 | 7.7067e-05 | 0.00011567 |   0.0 |  0.00
Modify  | 0.27739    | 0.28352    | 0.29446    |   1.2 |  1.59
Other   |            | 0.3074     |            |       |  1.72

Nlocal:           4000 ave        4317 max        3708 min
Histogram: 1 1 1 0 1 0 2 1 0 1
Nghost:         4731.5 ave        4907 max        4518 min
Histogram: 2 0 1 1 0 0 0 0 2 2
Neighs:         118462 ave      132067 max      107169 min
Histogram: 2 1 0 1 0 1 0 2 0 1

Total # of neighbors = 947698
Ave neighs/atom = 29.615562
Neighbor list builds = 100
Dangerous builds = 100
Total wall time: 0:00:17
